LAMMPS data file via write_data, version 10 Oct 2018, timestep = 2515

300 atoms
2 atom types

0.0000000000000000e+00 1.4986742986182596e+01 xlo xhi
0.0000000000000000e+00 1.5458970512527619e+01 ylo yhi
0.0000000000000000e+00 1.5709097261826431e+01 zlo zhi

Masses

1 28.0855
2 15.9994

Atoms # charge

2 1 2.3999999999999999e+00 2.0498804318002382e+00 6.7273365919050745e+00 4.9714255932188927e+00 0 0 0
18 1 2.3999999999999999e+00 8.1475030213522348e-01 7.3724792834786790e+00 2.6164362625629898e+00 0 0 0
20 1 2.3999999999999999e+00 3.4662037518785116e+00 3.6370949887212021e+00 2.9664257627505259e+00 0 0 0
36 1 2.3999999999999999e+00 6.4948013176792339e+00 2.9983718155242189e+00 7.0352256840661873e+00 0 0 0
37 1 2.3999999999999999e+00 4.1938619834409003e+00 5.2730523652319974e+00 5.1350224529345034e-01 0 0 0
248 2 -1.2000000000000000e+00 3.3972058247855066e+00 6.1686991784550269e+00 4.2397242749533195e+00 0 0 0
54 1 2.3999999999999999e+00 4.5957192878767499e+00 6.4095379771792320e+00 3.1805826280105194e+00 0 0 0
57 1 2.3999999999999999e+00 3.7141677598812719e+00 1.2253491992969039e+00 1.3189293491494194e+00 0 0 0
58 1 2.3999999999999999e+00 9.7395769460859960e-01 2.4722229199967352e+00 3.8296278651875526e+00 0 0 0
92 1 2.3999999999999999e+00 6.4593101612703423e+00 5.6712331331401060e+00 5.4107454062572424e+00 0 0 0
96 1 2.3999999999999999e+00 4.1096479950702998e+00 3.7382259434115936e+00 5.8867111141568644e+00 0 0 0
66 1 2.3999999999999999e+00 1.4531493072591246e+00 7.4969884044882973e-02 5.4712047045922522e-02 0 0 0
105 2 -1.2000000000000000e+00 1.8906411391863382e+00 3.3539612322262151e+00 2.7615577922879231e+00 0 0 0
110 2 -1.2000000000000000e+00 1.0392391520614517e+00 6.0383375733632239e+00 3.5042505785138380e+00 0 0 0
113 2 -1.2000000000000000e+00 2.7158511555044189e+00 7.0765724019049987e+00 6.4718231808579940e+00 0 0 0
122 2 -1.2000000000000000e+00 4.1763054966047735e+00 2.5066157047091315e+00 2.1652207770526442e+00 0 0 0
278 2 -1.2000000000000000e+00 3.5827820538961945e+00 8.1195811208851221e-02 2.5865665602372170e+00 0 0 0
191 2 -1.2000000000000000e+00 1.3339544455662493e+01 5.2102327020407087e+00 4.9874056829638382e+00 0 0 0
147 2 -1.2000000000000000e+00 6.5930350431649476e-01 6.1548101953528027e+00 5.5392011455324850e+00 0 0 0
148 2 -1.2000000000000000e+00 5.3431598466025854e+00 4.5103526184350358e+00 5.2089248623523385e+00 0 0 0
156 2 -1.2000000000000000e+00 4.8949635517692576e+00 2.6892687543105276e+00 6.8074397237264348e+00 0 0 0
157 2 -1.2000000000000000e+00 1.7467845711265380e+00 7.1424199275249034e+00 1.3284086037368221e+00 0 0 0
214 2 -1.2000000000000000e+00 3.0899095294764010e+00 4.6711934656928777e+00 6.6460353098858640e+00 0 0 0
245 2 -1.2000000000000000e+00 5.9942676524289116e+00 6.6032156055339950e+00 6.7037776628417669e+00 0 0 0
251 2 -1.2000000000000000e+00 6.9631930476189048e+00 3.1188546673776978e+00 2.0739826903095135e+00 0 0 0
266 2 -1.2000000000000000e+00 2.0838599674339302e+00 1.1587416711682044e+00 1.0311871278836342e+00 0 0 0
268 2 -1.2000000000000000e+00 3.4739596349384025e+00 3.2803559024812392e+00 4.5143250527094505e+00 0 0 0
272 2 -1.2000000000000000e+00 4.1556904677210440e+00 5.0623870673856564e+00 2.1853482610321775e+00 0 0 0
185 2 -1.2000000000000000e+00 1.2875511326628008e+01 9.7971846942384933e-01 7.2469832203483158e+00 0 0 0
281 2 -1.2000000000000000e+00 5.9364720012854892e+00 6.3900987561866573e+00 3.9811646073209124e+00 0 0 0
286 2 -1.2000000000000000e+00 5.0656039903515326e-01 3.6429313560005570e+00 4.8099757178488103e+00 0 0 0
293 2 -1.2000000000000000e+00 1.5465112085603219e+00 1.1279435124197046e+00 4.5164048344993359e+00 0 0 0
46 1 2.3999999999999999e+00 1.4438740810840162e+01 4.1832554918015470e+00 1.3847616680436268e+00 0 0 0
63 1 2.3999999999999999e+00 4.1212819553919772e-01 7.0388345591076114e+00 1.5162102840098488e-01 0 0 1
282 2 -1.2000000000000000e+00 7.1865932942754922e+00 4.4035612314924846e+00 6.5209413625655896e+00 0 0 0
239 2 -1.2000000000000000e+00 4.7963851337760905e+00 6.6882726457536670e+00 2.5938536879981855e-01 0 0 0
53 1 2.3999999999999999e+00 1.4853197445630167e+01 5.1139932364667064e+00 4.4117592418001355e+00 0 0 0
101 2 -1.2000000000000000e+00 2.3868270479047482e-01 5.3802284446996014e+00 4.7852045202020677e-01 1 0 0
187 2 -1.2000000000000000e+00 4.4271960846123193e+00 3.2962265028778454e-01 7.5159843187231621e+00 0 1 0
252 2 -1.2000000000000000e+00 7.0634691950208284e+00 1.9247284376733975e+00 5.9290123370123471e+00 0 0 0
99 1 2.3999999999999999e+00 2.7890863348417083e+00 5.9051408218712522e+00 7.6251414875157435e+00 0 0 0
27 1 2.3999999999999999e+00 1.1319258843925574e+01 1.1946228095341949e+00 3.8882092010363927e+00 0 1 0
270 2 -1.2000000000000000e+00 1.0251908234820318e+01 1.6064324052899104e-01 3.1842764231573861e+00 0 0 0
59 1 2.3999999999999999e+00 1.3646258994553387e+01 2.4286975614296202e+00 7.5998686728823479e+00 0 0 0
260 2 -1.2000000000000000e+00 8.5446930370510312e+00 3.4109302108275510e+00 4.2849416684359714e+00 0 0 0
9 1 2.3999999999999999e+00 9.0361487950904387e+00 4.4221565766866204e+00 5.6397634639488619e+00 0 0 0
11 1 2.3999999999999999e+00 8.6289788384281216e+00 1.5679856407191062e+00 5.6633377627757442e+00 0 0 0
136 2 -1.2000000000000000e+00 3.9331067790435525e-01 3.3043073587455485e+00 3.3494446813741885e-01 0 0 0
51 1 2.3999999999999999e+00 8.4193387599993379e+00 3.5852574284327683e+00 2.6395706167137236e+00 0 0 0
190 2 -1.2000000000000000e+00 8.1606941125795274e+00 5.8877890314353651e+00 5.0269304256289837e+00 0 0 0
292 2 -1.2000000000000000e+00 1.0680829881355143e+01 4.5179608872599903e+00 5.2794165992078748e+00 0 0 0
197 2 -1.2000000000000000e+00 7.2764639782869036e+00 5.8237165472711749e-01 2.7072606126454191e+00 0 0 0
299 2 -1.2000000000000000e+00 1.2272179737371120e+01 5.8241009191764481e-01 5.0356591874222216e+00 0 0 0
289 2 -1.2000000000000000e+00 1.4313706787876299e+01 4.6540471198627307e+00 2.8202216480551781e+00 -1 0 0
222 2 -1.2000000000000000e+00 8.8984817603318920e+00 2.1246830755771136e+00 1.9855955784597674e+00 0 0 0
12 1 2.3999999999999999e+00 1.2195003436430669e+01 4.5919208976772845e+00 5.8594378695391036e+00 0 0 0
21 1 2.3999999999999999e+00 1.1356838104527018e+01 1.1501750473467658e+00 6.5848296885974316e+00 0 0 0
22 1 2.3999999999999999e+00 7.3830698949986866e+00 1.6389710180663126e+00 1.3624069893279505e+00 0 0 0
43 1 2.3999999999999999e+00 8.8100036618607049e+00 7.1545456737745114e+00 5.7941484177744629e+00 0 0 0
55 1 2.3999999999999999e+00 1.3347925545704646e+01 1.5548798720975987e+00 2.0518489714224866e+00 0 0 0
161 2 -1.2000000000000000e+00 8.9164826567227689e+00 1.5772580926978449e-01 6.3492733491600992e+00 0 0 0
135 2 -1.2000000000000000e+00 7.1743633059023155e+00 3.1740521818184037e-01 2.6779790881422255e-01 0 0 1
300 2 -1.2000000000000000e+00 1.0430196535893886e+01 1.7047849844646497e+00 5.2066509564849124e+00 0 0 0
291 2 -1.2000000000000000e+00 1.2773390508396181e+01 3.1086769906032909e+00 6.3427002740979761e+00 0 0 0
295 2 -1.2000000000000000e+00 1.4613963138063479e+01 7.6552257083066735e+00 1.5176691050441531e+00 -1 0 0
102 2 -1.2000000000000000e+00 9.0291628324536681e+00 2.9820542368516114e+00 6.5948407340718127e+00 0 0 0
107 2 -1.2000000000000000e+00 1.2083609829897302e+01 5.2678946423615978e+00 7.3133116883693345e+00 0 0 0
288 2 -1.2000000000000000e+00 1.4580749011049615e+01 4.9535679334812982e-03 5.6204193172473298e+00 0 0 0
139 2 -1.2000000000000000e+00 1.4646859801320522e+01 1.9269825043838789e+00 3.0420951047850822e+00 0 0 0
146 2 -1.2000000000000000e+00 1.3440267952703133e+01 2.9600325997348458e+00 1.0311264658730401e+00 0 0 0
176 2 -1.2000000000000000e+00 9.3477968044677340e+00 5.7874515077513902e+00 6.8215753345189833e+00 0 0 0
182 2 -1.2000000000000000e+00 1.4360313056258175e+01 8.8505058766982314e-01 7.9456583115856294e-01 0 0 0
151 2 -1.2000000000000000e+00 8.6747490105191591e+00 7.6549665514303755e-02 4.9489535450131035e+00 0 1 0
188 2 -1.2000000000000000e+00 1.2096714939752593e+01 2.1511485415958780e+00 2.9802816990821337e+00 0 0 0
189 2 -1.2000000000000000e+00 8.9436222314464153e+00 4.9323695404670449e+00 2.1904966771049401e+00 0 0 0
233 2 -1.2000000000000000e+00 4.7976704956451508e+00 2.3567958889162460e-01 5.4016376357556362e-01 0 0 1
186 2 -1.2000000000000000e+00 1.0556916956806475e+01 1.7705575864274394e+00 7.8408330963480797e+00 0 0 0
224 2 -1.2000000000000000e+00 2.7328689060618694e+00 4.7565725886381900e+00 4.4641207799056559e-03 0 0 1
212 2 -1.2000000000000000e+00 2.2210003364839945e-01 2.1969158247996328e+00 7.7720191710487505e+00 1 0 0
10 1 2.3999999999999999e+00 4.8039336165073978e+00 4.3420833755584338e+00 9.3504358478994778e+00 0 0 0
16 1 2.3999999999999999e+00 3.5090453994859891e+00 3.3336835312904052e+00 1.4466245195457923e+01 0 0 0
23 1 2.3999999999999999e+00 1.2001018959854166e+00 4.4461833991531803e+00 1.5133204182839711e+01 0 0 0
26 1 2.3999999999999999e+00 1.4659847102736689e+00 1.9941179982265234e+00 1.3222946201091162e+01 0 0 0
40 1 2.3999999999999999e+00 4.1953504714702881e+00 2.6328837244849459e+00 1.1790268662531984e+01 0 0 0
47 1 2.3999999999999999e+00 6.9386491575136464e+00 3.6159301072912360e+00 1.1569997585210356e+01 0 0 0
56 1 2.3999999999999999e+00 9.8867747290471952e-01 4.7754943418461160e+00 1.2034998622141980e+01 0 0 0
283 2 -1.2000000000000000e+00 1.4905886947497880e+01 1.7082174469129771e-01 8.8832896478654444e+00 -1 1 0
120 2 -1.2000000000000000e+00 4.9174893780117523e+00 4.3995244513926570e+00 1.5044450062976118e+01 0 0 -1
64 1 2.3999999999999999e+00 6.0291181957495299e+00 7.5893402077433345e+00 1.2052255894907903e+01 0 0 0
65 1 2.3999999999999999e+00 2.6354985317624441e-01 6.2025008653474956e+00 9.4762114502123360e+00 0 0 0
69 1 2.3999999999999999e+00 6.9172310333500908e+00 1.4179868699932219e+00 9.6253256719387466e+00 0 0 0
75 1 2.3999999999999999e+00 5.2733047448978754e+00 4.8544414021653983e+00 1.3405701135268044e+01 0 0 0
90 1 2.3999999999999999e+00 1.2097918760489241e+00 7.4359078482280605e+00 1.1784423084472730e+01 0 0 0
109 2 -1.2000000000000000e+00 6.9615429863777543e+00 1.8983404660173506e+00 1.1236477709721683e+01 0 0 0
123 2 -1.2000000000000000e+00 3.6587667623110542e+00 4.5139223598016134e+00 1.3302949650583372e+01 0 0 0
127 2 -1.2000000000000000e+00 5.6951315004699739e+00 6.6681798828350491e-01 1.3359383197014356e+01 0 0 0
132 2 -1.2000000000000000e+00 3.9297127476858331e+00 3.4951096834843645e+00 1.0455704003619346e+01 0 0 0
133 2 -1.2000000000000000e+00 2.0172888936761852e+00 6.0234215319850302e+00 1.1831931214576530e+01 0 0 0
276 2 -1.2000000000000000e+00 1.5040028018097185e+00 7.5189467979035864e+00 1.4743840170869952e+01 0 0 0
138 2 -1.2000000000000000e+00 5.1184739373550006e+00 3.4268790792451145e+00 7.9667259537204131e+00 0 0 0
152 2 -1.2000000000000000e+00 2.7338038719794917e+00 2.0419343659188085e+00 8.2068458697984745e+00 0 0 0
178 2 -1.2000000000000000e+00 6.8360788931014476e+00 1.6320049833852499e+00 1.5622265325297576e+01 0 0 0
179 2 -1.2000000000000000e+00 3.3164340601222260e+00 2.2656006213734576e+00 1.3106681680602778e+01 0 0 0
208 2 -1.2000000000000000e+00 5.4835141223481809e+00 3.4940869227777673e+00 1.2371160802727431e+01 0 0 0
50 1 2.3999999999999999e+00 2.5058497759908724e+00 1.3410262714292556e-01 1.1230397566830781e+01 0 1 0
228 2 -1.2000000000000000e+00 5.3592397889447145e+00 1.5122676079293962e+00 9.3173966475580450e+00 0 0 0
230 2 -1.2000000000000000e+00 6.5723267741914730e+00 4.1631189427352044e+00 1.2957111293840494e+01 0 0 0
29 1 2.3999999999999999e+00 5.7787239759951774e+00 7.2576702459550080e-01 1.4953842454447368e+01 0 0 -1
223 2 -1.2000000000000000e+00 1.8613703789451739e+00 3.1283128580812534e+00 1.4397200662914328e+01 0 0 -1
249 2 -1.2000000000000000e+00 4.0135660562617126e+00 1.0044361287061605e+00 1.1422860294497246e+01 0 0 0
256 2 -1.2000000000000000e+00 1.1898330683671017e+00 3.1834919035239899e+00 1.2109629406186064e+01 0 0 0
261 2 -1.2000000000000000e+00 1.4179987627844570e+00 5.9146130868850433e+00 8.4143756379325172e+00 0 0 0
277 2 -1.2000000000000000e+00 3.9699617377098946e+00 5.5816454230793529e+00 8.7680789601260081e+00 0 0 0
297 2 -1.2000000000000000e+00 5.4542660005741483e+00 6.4171911255954619e+00 1.3006216897068398e+01 0 0 0
209 2 -1.2000000000000000e+00 2.1266253246351670e+00 3.8506952388656229e-01 9.7721070178509279e+00 0 0 0
44 1 2.3999999999999999e+00 1.3077307429582117e+00 1.0315468731994020e+00 8.3885550183387725e+00 0 0 0
103 2 -1.2000000000000000e+00 1.4877845168696884e+00 7.8042112773617589e-01 1.2215073099119692e+01 0 1 0
168 2 -1.2000000000000000e+00 7.7329996341744101e-01 1.1024183004269716e+00 1.4608131328110272e+01 0 0 0
207 2 -1.2000000000000000e+00 3.2094857933663118e-01 5.0199654975783963e+00 1.0584853762783219e+01 1 0 0
217 2 -1.2000000000000000e+00 6.2414512090325092e+00 4.1795717897005913e+00 1.0126541341074882e+01 0 0 0
126 2 -1.2000000000000000e+00 3.9307869797969364e+00 2.2048049421185394e+00 1.5511673407316932e+01 0 0 -1
227 2 -1.2000000000000000e+00 6.4117003698646979e-01 4.9455504183522159e+00 1.3685274876007307e+01 1 0 0
81 1 2.3999999999999999e+00 4.3262454003695732e+00 1.8615778427669787e+00 8.0676524849935873e+00 0 0 0
167 2 -1.2000000000000000e+00 8.1242178486023287e-01 7.5624269360193646e+00 1.0230806652717519e+01 0 0 0
6 1 2.3999999999999999e+00 1.2219568885353349e+01 5.7331823335978198e+00 8.8422454523032759e+00 0 0 0
160 2 -1.2000000000000000e+00 7.4407503962071671e+00 2.3828036036139650e+00 8.3928799741536686e+00 0 0 0
173 2 -1.2000000000000000e+00 1.3700234598638552e+01 6.2354240333729249e+00 9.0831604942213708e+00 0 0 0
13 1 2.3999999999999999e+00 9.1141706347716678e+00 2.4903735518033572e+00 8.1919127247883861e+00 0 0 0
215 2 -1.2000000000000000e+00 1.2621333603557028e+01 1.5439355945477042e+00 1.0406320068749780e+01 0 0 0
290 2 -1.2000000000000000e+00 1.3084633656017047e+01 3.2958923707008307e+00 8.8483610730817617e+00 0 0 0
24 1 2.3999999999999999e+00 9.8465153038113922e+00 4.3329932743559896e+00 1.0497281942545417e+01 0 0 0
31 1 2.3999999999999999e+00 1.3589884511644479e+01 6.4339796825707198e+00 1.3439437344863336e+01 0 0 0
35 1 2.3999999999999999e+00 1.2786953399436992e+01 3.4132098652865697e+00 1.3266309815717728e+01 0 0 0
38 1 2.3999999999999999e+00 9.6566204529962647e+00 6.8686987814797353e+00 8.0365799289793056e+00 0 0 0
48 1 2.3999999999999999e+00 7.9949348108300837e+00 9.6127021279362546e-01 1.2210523293240856e+01 0 0 0
78 1 2.3999999999999999e+00 1.2390423740391064e+01 3.1694125397793025e+00 1.0344859794823748e+01 0 0 0
82 1 2.3999999999999999e+00 1.0342631022953510e+01 1.8132738633693288e+00 1.2197823114604978e+01 0 0 0
257 2 -1.2000000000000000e+00 1.3187728753085977e+01 3.5374919975980266e+00 1.1711379208286449e+01 0 0 0
91 1 2.3999999999999999e+00 7.9605367701000711e+00 6.8826697771797880e+00 1.0090643412996737e+01 0 0 0
114 2 -1.2000000000000000e+00 1.2361678699240748e+01 7.1040501871504498e+00 1.2694345958285103e+01 0 0 0
119 2 -1.2000000000000000e+00 8.1982163625426363e+00 1.2285606122939297e+00 8.6279019616110890e+00 0 0 0
124 2 -1.2000000000000000e+00 9.0876172357942870e+00 5.8081042641429086e+00 1.0412069027005172e+01 0 0 0
131 2 -1.2000000000000000e+00 1.4071672916045149e+01 6.9787978301179381e+00 1.4875672485253576e+01 0 0 0
141 2 -1.2000000000000000e+00 1.2980004814467966e+01 4.9311434981512567e+00 1.3744544591609031e+01 0 0 0
149 2 -1.2000000000000000e+00 9.1665045646151579e+00 1.1310889848567471e+00 1.1087794487548646e+01 0 0 0
166 2 -1.2000000000000000e+00 9.4742031840985454e+00 3.7982325787467279e+00 9.0128496330069670e+00 0 0 0
172 2 -1.2000000000000000e+00 7.9677836416108612e+00 6.9143511334505661e+00 8.4302041574436366e+00 0 0 0
174 2 -1.2000000000000000e+00 1.1589364622903114e+01 4.7536851433942440e+00 1.0034386268404791e+01 0 0 0
62 1 2.3999999999999999e+00 1.4522168170650161e+01 2.0229124768419942e+00 1.5439350410530162e+01 -1 0 0
180 2 -1.2000000000000000e+00 1.0762810115270577e+01 2.9828747845468975e+00 1.1005274295444259e+01 0 0 0
232 2 -1.2000000000000000e+00 1.4802879572696458e+01 6.8323617425413019e+00 1.2401967254860027e+01 0 0 0
194 2 -1.2000000000000000e+00 8.5359463704586283e+00 3.7927906465169650e+00 1.1396524355194469e+01 0 0 0
242 2 -1.2000000000000000e+00 1.3860165334407093e+01 2.5669383459851551e+00 1.4109107974338073e+01 0 0 0
200 2 -1.2000000000000000e+00 8.9915577511847751e+00 1.6447170278378249e+00 1.3203214784342165e+01 0 0 0
211 2 -1.2000000000000000e+00 1.0974522338626308e+01 6.7748565273784340e+00 8.8298967544394049e+00 0 0 0
213 2 -1.2000000000000000e+00 1.1404242852684291e+01 2.6285042613811385e+00 1.3217010780009733e+01 0 0 0
150 2 -1.2000000000000000e+00 6.4981479977035210e+00 6.7834818926138469e+00 1.0639236708973337e+01 0 0 0
42 1 2.3999999999999999e+00 1.2525201876101701e+01 1.3804025575286166e-01 1.1211800120688128e+01 0 1 0
155 2 -1.2000000000000000e+00 1.1824253427741162e+01 1.0671694878149169e+00 1.5557616326214804e+01 0 1 -1
177 2 -1.2000000000000000e+00 1.1221689766081900e+01 4.3198113545959582e-01 1.2118978512675000e+01 0 0 0
1 1 2.3999999999999999e+00 5.8287056423643664e+00 1.2021475231046137e+01 1.8210953830763408e+00 0 0 0
5 1 2.3999999999999999e+00 3.2987882805271309e+00 8.9546188771194011e+00 3.2573007952255923e+00 0 0 0
61 1 2.3999999999999999e+00 7.1716470922350730e+00 1.4169923190161361e+01 1.9689169860002773e-01 0 0 0
17 1 2.3999999999999999e+00 3.4516298593480861e+00 1.4604867835472666e+01 7.7243954474160468e+00 0 0 0
41 1 2.3999999999999999e+00 1.7504838430640064e+00 1.1276081126739271e+01 2.0571708004098328e+00 0 0 0
52 1 2.3999999999999999e+00 4.3314327399194408e-01 1.1258704311879924e+01 4.7897381629069420e+00 0 0 0
71 1 2.3999999999999999e+00 7.2460069939174989e+00 1.3092909582350229e+01 6.8257500204813466e+00 0 0 0
198 2 -1.2000000000000000e+00 1.0058471428590414e+00 1.0006584369017082e+01 1.3788310774260324e+00 0 0 1
76 1 2.3999999999999999e+00 3.5339859596283403e+00 1.3973508901914602e+01 2.4612012235524765e+00 0 0 0
84 1 2.3999999999999999e+00 2.0831837640210202e+00 1.2781759132621589e+01 6.3668666770181348e+00 0 0 0
85 1 2.3999999999999999e+00 5.1450451667707489e+00 1.2719613987968476e+01 4.7134149104733316e+00 0 0 0
86 1 2.3999999999999999e+00 4.6921450861948616e-01 1.3451408938264857e+01 2.1485040276463030e+00 0 0 0
104 2 -1.2000000000000000e+00 4.7209693348190012e+00 1.3224601750870749e+01 1.6662167946501270e+00 0 0 0
108 2 -1.2000000000000000e+00 1.3043002906847772e-03 9.7543030623229274e+00 4.6053624828100146e+00 0 0 0
111 2 -1.2000000000000000e+00 1.3174306896342556e+00 1.3699457991901165e+01 5.3472585237413712e+00 0 0 0
117 2 -1.2000000000000000e+00 2.2003155197981781e+00 1.2954763424156075e+01 2.1831575859155405e+00 0 0 0
121 2 -1.2000000000000000e+00 6.3375810560197920e-01 1.1809886039690806e+01 3.2377240745199640e+00 0 0 0
142 2 -1.2000000000000000e+00 3.4968097003654433e+00 1.3499031532996677e+01 6.5582363847001819e+00 0 0 0
144 2 -1.2000000000000000e+00 5.1862661674075374e+00 1.0689271095657961e+01 1.3637159888603378e+00 0 0 0
164 2 -1.2000000000000000e+00 4.1798468850090096e+00 7.8446743364931173e+00 2.5855296393866096e+00 0 0 0
170 2 -1.2000000000000000e+00 1.9200700160365498e+00 8.0976649481303440e+00 3.7272264591487141e+00 0 0 0
195 2 -1.2000000000000000e+00 2.0154640807769333e+00 1.1300967173234451e+01 5.5011796480067323e+00 0 0 0
196 2 -1.2000000000000000e+00 6.2151456812013093e+00 1.3372043520506601e+01 5.6656640589418137e+00 0 0 0
206 2 -1.2000000000000000e+00 1.9763106180505876e+00 1.5235290148349344e+01 7.4330669556518600e+00 0 0 0
100 1 2.3999999999999999e+00 3.4418374864323553e+00 1.0362946042110435e+01 5.7515857717359777e+00 0 0 0
218 2 -1.2000000000000000e+00 7.3145806471348580e+00 1.1678141184266714e+01 7.6107773024200194e+00 0 0 0
219 2 -1.2000000000000000e+00 3.9423504725048297e+00 1.3453439814799792e+01 3.9466633599312604e+00 0 0 0
183 2 -1.2000000000000000e+00 6.8627153782499095e-01 1.4135214391808047e+01 5.8241491274479007e-01 0 0 1
231 2 -1.2000000000000000e+00 3.4224026399241447e+00 9.8460617236885497e+00 7.2331135608029236e+00 0 0 0
235 2 -1.2000000000000000e+00 6.0143578693685740e+00 1.2157109488003183e+01 3.4276629941192995e+00 0 0 0
246 2 -1.2000000000000000e+00 3.8071502208605876e+00 9.2350399082314674e+00 4.7318709193587694e+00 0 0 0
247 2 -1.2000000000000000e+00 4.5633959398161430e+00 1.1440631138524164e+01 5.5089192496639496e+00 0 0 0
68 1 2.3999999999999999e+00 1.3110493462374700e+01 1.4991422420502847e+01 6.1257441259862091e+00 0 -1 0
279 2 -1.2000000000000000e+00 9.3583131345050532e+00 8.7003845561360134e+00 2.4017500224276681e-01 0 0 1
265 2 -1.2000000000000000e+00 1.3001841378343557e+00 1.1901213232223791e+01 4.3936229612444938e-01 0 0 0
275 2 -1.2000000000000000e+00 2.8430285241323014e+00 1.0422757033559529e+01 2.8356718543503376e+00 0 0 0
287 2 -1.2000000000000000e+00 7.0905601464134804e+00 1.2680850698373289e+01 9.3390946841038791e-01 0 0 0
294 2 -1.2000000000000000e+00 2.8522573154242572e+00 1.4451702715079284e+01 4.4890302680914418e-01 0 0 0
49 1 2.3999999999999999e+00 6.6557224938115800e+00 7.9299668368087488e+00 7.5095210942474058e+00 0 0 0
88 1 2.3999999999999999e+00 8.5344609553177175e+00 1.5409762530638622e+01 3.3639931779770853e+00 0 -1 0
225 2 -1.2000000000000000e+00 6.5823868127388270e+00 8.2682217306922521e+00 1.1396071325504251e+00 0 0 0
87 1 2.3999999999999999e+00 1.0914302991918900e+01 9.1317944398117152e+00 1.5533727932986655e-01 0 0 1
60 1 2.3999999999999999e+00 8.5362092188294192e-01 1.5153569630757108e+01 4.7279929985193743e+00 1 -1 0
112 2 -1.2000000000000000e+00 1.1128883084396636e+01 1.4971483797574896e+01 6.5896094019152676e+00 0 -1 0
129 2 -1.2000000000000000e+00 7.7982018173618322e+00 1.0489386264654259e+01 2.5274468008492768e-01 0 0 0
153 2 -1.2000000000000000e+00 1.4449815408406160e+01 1.1787899712310391e+01 5.9107549811873508e+00 -1 0 0
243 2 -1.2000000000000000e+00 1.1789794834299105e+01 1.0555223435323651e+01 1.4714826520945382e-01 0 0 0
220 2 -1.2000000000000000e+00 6.0630196918374368e-01 1.4601958774434452e+01 3.2198726250085512e+00 0 0 0
267 2 -1.2000000000000000e+00 7.5410885894976243e+00 8.0830964828783181e+00 6.0411394900766755e+00 0 0 0
202 2 -1.2000000000000000e+00 9.7662730454143567e+00 7.9266168098751031e+00 6.8169932645933971e+00 0 0 0
271 2 -1.2000000000000000e+00 8.8039696866532271e+00 1.4043572995418355e+01 2.5579301462812896e+00 0 -1 0
171 2 -1.2000000000000000e+00 8.7330297932881926e+00 1.3121460229099991e+01 6.2822726673836984e+00 0 0 0
3 1 2.3999999999999999e+00 1.0370434396122340e+01 1.3886273242408807e+01 2.9364006195954060e+00 0 0 0
216 2 -1.2000000000000000e+00 1.3562235981112767e+01 1.3892907436623350e+01 7.5248983147846200e+00 0 0 0
33 1 2.3999999999999999e+00 1.2774784929532126e+01 1.4092185681616096e+01 1.3297540772740986e+00 0 0 0
262 2 -1.2000000000000000e+00 1.3133241828703701e+01 9.8189751020410796e+00 2.8210356674715928e+00 0 0 0
74 1 2.3999999999999999e+00 1.3085728947732326e+01 1.2429172829344713e+01 6.6753608520543519e+00 0 0 0
93 1 2.3999999999999999e+00 9.7558237411747459e+00 1.4290203009206747e+01 5.8931546784144295e+00 0 0 0
94 1 2.3999999999999999e+00 1.3446655299320968e+01 8.7658712248011224e+00 1.5678117926980788e+00 0 0 0
134 2 -1.2000000000000000e+00 1.2760893147785570e+01 8.3558314323207625e+00 5.0740917056723580e+00 0 0 0
106 2 -1.2000000000000000e+00 1.1343878069592835e+01 1.3512786725199895e+01 1.8118966000846746e+00 0 0 0
184 2 -1.2000000000000000e+00 1.1952289131200924e+01 8.3122485705004543e+00 1.0891841357808096e+00 0 0 0
280 2 -1.2000000000000000e+00 1.2766980611192954e+01 1.5432793484474431e+01 2.2946621079343354e+00 0 -1 0
125 2 -1.2000000000000000e+00 1.3930923614864408e+01 1.3134045461441850e+01 1.8535485222671346e+00 0 0 0
67 1 2.3999999999999999e+00 1.3701569237894056e+01 8.9413037955007884e+00 4.0655197708531032e+00 0 0 0
162 2 -1.2000000000000000e+00 1.2966431994187285e+01 1.3538136999986410e+01 5.3839011636515179e+00 0 0 0
175 2 -1.2000000000000000e+00 1.1431946230133516e+01 1.2311440108489554e+01 7.0307237500442383e+00 0 0 0
204 2 -1.2000000000000000e+00 1.0325299961890190e+01 1.3652536026908077e+01 4.4707790688036200e+00 0 0 0
284 2 -1.2000000000000000e+00 1.3989324852649087e+01 9.6539720369669002e+00 1.9191098444497501e-01 0 0 1
169 2 -1.2000000000000000e+00 1.4344097738832742e+01 7.9847430225830296e+00 2.8555239826192893e+00 -1 0 0
8 1 2.3999999999999999e+00 7.7343677664275310e+00 8.9026618644098754e+00 2.1056368668996936e-01 0 0 1
98 1 2.3999999999999999e+00 5.2833970903929330e+00 8.2273262411889458e+00 2.8682363588750093e-03 0 0 1
4 1 2.3999999999999999e+00 4.0527341145992885e-01 1.2448090914908422e+01 1.1125238942816717e+01 0 0 0
7 1 2.3999999999999999e+00 7.0184175890489460e+00 1.4050898770923757e+01 1.1155997151182723e+01 0 0 0
32 1 2.3999999999999999e+00 4.6563993475713756e+00 1.5220170002735877e+01 1.2445321377700758e+01 0 0 0
39 1 2.3999999999999999e+00 2.4445033575129096e+00 8.7312529293749552e+00 1.4139656599582585e+01 0 0 0
45 1 2.3999999999999999e+00 4.1793313183312577e+00 9.5618833169208202e+00 8.5940499065826028e+00 0 0 0
259 2 -1.2000000000000000e+00 3.4959059023058026e+00 1.2667497133483556e+01 1.4908882149394129e+01 0 0 0
28 1 2.3999999999999999e+00 4.1540641288315019e+00 1.4265680017948123e+01 1.5134869387250459e+01 0 0 -1
79 1 2.3999999999999999e+00 2.8488415979600150e+00 1.2217068414481822e+01 9.3158929406020672e+00 0 0 0
143 2 -1.2000000000000000e+00 9.8527029695821895e+00 1.0834439421659814e+01 8.3806579258733453e+00 0 0 0
154 2 -1.2000000000000000e+00 5.8097011001898498e+00 1.3901956354887247e+01 1.5110549202253129e+01 0 0 0
159 2 -1.2000000000000000e+00 3.8918384095815934e+00 8.7251061053136780e+00 1.4917125788699764e+01 0 0 0
221 2 -1.2000000000000000e+00 2.0807036403869472e+00 8.4974821362125397e+00 1.2574321296211318e+01 0 0 0
192 2 -1.2000000000000000e+00 2.4402293212149453e+00 1.4639350639540437e+01 1.4842108513561080e+01 0 0 0
201 2 -1.2000000000000000e+00 7.2320513848383339e+00 1.5214281919286638e+01 1.0022800187955493e+01 0 0 0
203 2 -1.2000000000000000e+00 3.6035032764354678e+00 1.3627764039129049e+01 9.0172269699282133e+00 0 0 0
234 2 -1.2000000000000000e+00 1.8528814461473369e+00 1.2134003806854645e+01 1.0547942094209365e+01 0 0 0
238 2 -1.2000000000000000e+00 6.5867207364619471e+00 8.5751499662456094e+00 1.4758012251850314e+01 0 0 0
250 2 -1.2000000000000000e+00 7.4614719555553641e+00 1.2557861903698356e+01 1.1035255725544511e+01 0 0 0
258 2 -1.2000000000000000e+00 5.5355014595994811e+00 1.4219379208796283e+01 1.1576679892186361e+01 0 0 0
137 2 -1.2000000000000000e+00 7.7493848606749376e+00 1.4867408864404439e+01 1.2350664142439642e+01 0 -1 0
285 2 -1.2000000000000000e+00 3.2040737764329523e+00 1.4461341600213656e+01 1.2067547948727601e+01 0 0 0
296 2 -1.2000000000000000e+00 1.5106550008844999e+00 9.9738673643396680e+00 1.4573041871026588e+01 0 0 0
158 2 -1.2000000000000000e+00 7.6063985606757036e+00 7.9960718046290893e+00 1.2242932643219470e+01 0 0 0
269 2 -1.2000000000000000e+00 1.4179486566982973e+01 1.1399164104567351e+01 1.1472372997031776e+01 0 0 0
210 2 -1.2000000000000000e+00 3.8207975356604948e+00 1.0908656083446076e+01 9.3079584289485560e+00 0 0 0
115 2 -1.2000000000000000e+00 8.3713810214408770e+00 1.3606557508104126e+01 1.4997239063502047e+01 0 0 -1
237 2 -1.2000000000000000e+00 7.4744011023489563e+00 9.2956269833702834e+00 8.1194511925802662e+00 0 0 0
241 2 -1.2000000000000000e+00 4.6647440712762487e+00 1.5415257756869226e+01 1.3992105976279490e+01 0 -1 0
73 1 2.3999999999999999e+00 3.9220898504916951e-01 1.0535512141066972e+01 1.5569299511574437e+01 0 0 -1
25 1 2.3999999999999999e+00 8.3468310608283716e+00 1.0585001846538377e+01 8.0998682957659494e+00 0 0 0
229 2 -1.2000000000000000e+00 5.1230434307203208e+00 8.7515787707049562e+00 1.1593348772217979e+01 0 0 0
15 1 2.3999999999999999e+00 2.0593454299841052e+00 1.3180096531930207e+01 1.5475117876730335e+01 0 0 -1
181 2 -1.2000000000000000e+00 2.8129638517138922e-01 1.2915277599514312e+01 1.2695169172138801e+01 0 0 0
236 2 -1.2000000000000000e+00 8.8096293442833087e+00 8.2453384890901287e+00 1.0219762783980588e+01 0 0 0
72 1 2.3999999999999999e+00 8.0432062256773627e+00 1.1853128466990407e+01 1.5218365323085287e+01 0 0 -1
199 2 -1.2000000000000000e+00 1.0643994909382744e+01 1.4510687834747962e+01 1.4294478156189932e+01 0 -1 0
30 1 2.3999999999999999e+00 8.2805359623512302e+00 1.5052691885050372e+01 8.6538050742179298e+00 0 0 0
34 1 2.3999999999999999e+00 1.3876418977001284e+01 1.2217893711372602e+01 1.3166870296866596e+01 -1 0 0
263 2 -1.2000000000000000e+00 7.1441024896584366e+00 1.4250191341135102e+01 7.8888061798164575e+00 0 0 0
128 2 -1.2000000000000000e+00 5.2606657626151403e+00 8.4965498556505441e+00 8.2644319753549897e+00 0 0 0
97 1 2.3999999999999999e+00 9.7759005129474588e+00 1.3242757133091274e+01 1.4040938688279496e+01 0 0 -1
298 2 -1.2000000000000000e+00 1.0208731658368556e+01 8.3345825246429506e+00 1.2435222387597445e+01 0 0 0
14 1 2.3999999999999999e+00 1.1389168728143362e+01 1.1532378607698261e+01 8.4812172420639023e+00 0 0 0
19 1 2.3999999999999999e+00 8.9237571820537855e+00 8.7854040219565004e+00 1.1732608460227045e+01 0 0 0
70 1 2.3999999999999999e+00 1.1832007495532002e+01 8.6195811941942271e+00 1.2738213257547082e+01 0 0 0
77 1 2.3999999999999999e+00 8.2586877928618261e+00 1.1768659284603352e+01 1.2181249073813314e+01 0 0 0
80 1 2.3999999999999999e+00 1.3958945600432674e+01 1.4365868023445314e+01 9.0435935906445568e+00 0 0 0
89 1 2.3999999999999999e+00 1.2345573925334513e+01 1.1315211068532140e+01 1.1531042974489193e+01 0 0 0
95 1 2.3999999999999999e+00 1.2826477492405830e+01 1.0294315881553166e+01 1.4566704365730109e+01 0 0 0
118 2 -1.2000000000000000e+00 1.2468914376254997e+01 1.1410565014542346e+01 1.3262188513911168e+01 0 0 0
130 2 -1.2000000000000000e+00 8.7013272027545447e+00 1.0342638986559431e+01 1.1725132451745218e+01 0 0 0
140 2 -1.2000000000000000e+00 7.5347860648586327e+00 1.1690366381328564e+01 1.3648321354671126e+01 0 0 0